Program Version,EnergyPlus, Version 22.1.0-ed759b17ee, YMD=2023.01.10 14:05
1,5,Environment Title[],Latitude[deg],Longitude[deg],Time Zone[],Elevation[m]
2,8,Day of Simulation[],Month[],Day of Month[],DST Indicator[1=yes 0=no],Hour[],StartMinute[],EndMinute[],DayType
3,5,Cumulative Day of Simulation[],Month[],Day of Month[],DST Indicator[1=yes 0=no],DayType  ! When Daily Report Variables Requested
4,2,Cumulative Days of Simulation[],Month[]  ! When Monthly Report Variables Requested
5,1,Cumulative Days of Simulation[] ! When Run Period Report Variables Requested
6,1,Calendar Year of Simulation[] ! When Annual Report Variables Requested
201,1,SOUTH,Surface Outside Face Incident Solar Radiation Rate per Area [W/m2] !TimeStep
End of Data Dictionary
1,RUN PERIOD 1,  53.63,  10.00,   1.00,  13.00
2,1, 1, 1, 0, 1, 0.00,10.00,Monday
201,0.0
2,1, 1, 1, 0, 1,10.00,20.00,Monday
201,0.0
2,1, 1, 1, 0, 1,20.00,30.00,Monday
201,0.0
2,1, 1, 1, 0, 1,30.00,40.00,Monday
201,0.0
2,1, 1, 1, 0, 1,40.00,50.00,Monday
201,0.0
2,1, 1, 1, 0, 1,50.00,60.00,Monday
201,0.0
2,1, 1, 1, 0, 2, 0.00,10.00,Monday
201,0.0
2,1, 1, 1, 0, 2,10.00,20.00,Monday
201,0.0
2,1, 1, 1, 0, 2,20.00,30.00,Monday
201,0.0
2,1, 1, 1, 0, 2,30.00,40.00,Monday
201,0.0
2,1, 1, 1, 0, 2,40.00,50.00,Monday
201,0.0
2,1, 1, 1, 0, 2,50.00,60.00,Monday
201,0.0
2,1, 1, 1, 0, 3, 0.00,10.00,Monday
201,0.0
2,1, 1, 1, 0, 3,10.00,20.00,Monday
201,0.0
2,1, 1, 1, 0, 3,20.00,30.00,Monday
201,0.0
2,1, 1, 1, 0, 3,30.00,40.00,Monday
201,0.0
2,1, 1, 1, 0, 3,40.00,50.00,Monday
201,0.0
2,1, 1, 1, 0, 3,50.00,60.00,Monday
201,0.0
2,1, 1, 1, 0, 4, 0.00,10.00,Monday
201,0.0
2,1, 1, 1, 0, 4,10.00,20.00,Monday
201,0.0
2,1, 1, 1, 0, 4,20.00,30.00,Monday
201,0.0
2,1, 1, 1, 0, 4,30.00,40.00,Monday
201,0.0
2,1, 1, 1, 0, 4,40.00,50.00,Monday
201,0.0
2,1, 1, 1, 0, 4,50.00,60.00,Monday
201,0.0
2,1, 1, 1, 0, 5, 0.00,10.00,Monday
201,0.0
2,1, 1, 1, 0, 5,10.00,20.00,Monday
201,0.0
2,1, 1, 1, 0, 5,20.00,30.00,Monday
201,0.0
2,1, 1, 1, 0, 5,30.00,40.00,Monday
201,0.0
2,1, 1, 1, 0, 5,40.00,50.00,Monday
201,0.0
2,1, 1, 1, 0, 5,50.00,60.00,Monday
201,0.0
2,1, 1, 1, 0, 6, 0.00,10.00,Monday
201,0.0
2,1, 1, 1, 0, 6,10.00,20.00,Monday
201,0.0
2,1, 1, 1, 0, 6,20.00,30.00,Monday
201,0.0
2,1, 1, 1, 0, 6,30.00,40.00,Monday
201,0.0
2,1, 1, 1, 0, 6,40.00,50.00,Monday
201,0.0
2,1, 1, 1, 0, 6,50.00,60.00,Monday
201,0.0
2,1, 1, 1, 0, 7, 0.00,10.00,Monday
201,0.0
2,1, 1, 1, 0, 7,10.00,20.00,Monday
201,0.0
2,1, 1, 1, 0, 7,20.00,30.00,Monday
201,0.0
2,1, 1, 1, 0, 7,30.00,40.00,Monday
201,0.0
2,1, 1, 1, 0, 7,40.00,50.00,Monday
201,0.0
2,1, 1, 1, 0, 7,50.00,60.00,Monday
201,0.0
2,1, 1, 1, 0, 8, 0.00,10.00,Monday
201,0.0
2,1, 1, 1, 0, 8,10.00,20.00,Monday
201,0.0
2,1, 1, 1, 0, 8,20.00,30.00,Monday
201,0.0
2,1, 1, 1, 0, 8,30.00,40.00,Monday
201,0.0
2,1, 1, 1, 0, 8,40.00,50.00,Monday
201,0.0
2,1, 1, 1, 0, 8,50.00,60.00,Monday
201,0.0
2,1, 1, 1, 0, 9, 0.00,10.00,Monday
201,0.0
2,1, 1, 1, 0, 9,10.00,20.00,Monday
201,0.0
2,1, 1, 1, 0, 9,20.00,30.00,Monday
201,0.0
2,1, 1, 1, 0, 9,30.00,40.00,Monday
201,0.0
2,1, 1, 1, 0, 9,40.00,50.00,Monday
201,9.587225084547107
2,1, 1, 1, 0, 9,50.00,60.00,Monday
201,10.2132851140187
2,1, 1, 1, 0,10, 0.00,10.00,Monday
201,10.749716304837802
2,1, 1, 1, 0,10,10.00,20.00,Monday
201,11.395055700362853
2,1, 1, 1, 0,10,20.00,30.00,Monday
201,12.18244949599007
2,1, 1, 1, 0,10,30.00,40.00,Monday
201,11.41823719494194
2,1, 1, 1, 0,10,40.00,50.00,Monday
201,11.396776516219761
2,1, 1, 1, 0,10,50.00,60.00,Monday
201,11.381923529027716
2,1, 1, 1, 0,11, 0.00,10.00,Monday
201,11.371540151259586
2,1, 1, 1, 0,11,10.00,20.00,Monday
201,11.364265090662208
2,1, 1, 1, 0,11,20.00,30.00,Monday
201,11.359194457573945
2,1, 1, 1, 0,11,30.00,40.00,Monday
201,12.314895678506103
2,1, 1, 1, 0,11,40.00,50.00,Monday
201,13.271925336583074
2,1, 1, 1, 0,11,50.00,60.00,Monday
201,14.230269720576523
2,1, 1, 1, 0,12, 0.00,10.00,Monday
201,15.189925941078839
2,1, 1, 1, 0,12,10.00,20.00,Monday
201,16.150905306687275
2,1, 1, 1, 0,12,20.00,30.00,Monday
201,17.11323718304673
2,1, 1, 1, 0,12,30.00,40.00,Monday
201,17.374431983882197
2,1, 1, 1, 0,12,40.00,50.00,Monday
201,17.636157505598828
2,1, 1, 1, 0,12,50.00,60.00,Monday
201,17.898365162755102
2,1, 1, 1, 0,13, 0.00,10.00,Monday
201,18.16103680270827
2,1, 1, 1, 0,13,10.00,20.00,Monday
201,18.42418430626373
2,1, 1, 1, 0,13,20.00,30.00,Monday
201,18.6878508448308
2,1, 1, 1, 0,13,30.00,40.00,Monday
201,17.196008895093755
2,1, 1, 1, 0,13,40.00,50.00,Monday
201,15.707797126036082
2,1, 1, 1, 0,13,50.00,60.00,Monday
201,14.223009852811884
2,1, 1, 1, 0,14, 0.00,10.00,Monday
201,12.741526189781728
2,1, 1, 1, 0,14,10.00,20.00,Monday
201,11.263301144512585
2,1, 1, 1, 0,14,20.00,30.00,Monday
201,9.788361022666406
2,1, 1, 1, 0,14,30.00,40.00,Monday
201,9.35515494957346
2,1, 1, 1, 0,14,40.00,50.00,Monday
201,8.922257684271521
2,1, 1, 1, 0,14,50.00,60.00,Monday
201,8.489707547118257
2,1, 1, 1, 0,15, 0.00,10.00,Monday
201,8.057550133129691
2,1, 1, 1, 0,15,10.00,20.00,Monday
201,7.625839029158025
2,1, 1, 1, 0,15,20.00,30.00,Monday
201,7.194637510507555
2,1, 1, 1, 0,15,30.00,40.00,Monday
201,6.245750121083313
2,1, 1, 1, 0,15,40.00,50.00,Monday
201,5.298425105916967
2,1, 1, 1, 0,15,50.00,60.00,Monday
201,4.352771725073835
2,1, 1, 1, 0,16, 0.00,10.00,Monday
201,3.4089478196554577
2,1, 1, 1, 0,16,10.00,20.00,Monday
201,2.4672096580951606
2,1, 1, 1, 0,16,20.00,30.00,Monday
201,1.5280346372267866
2,1, 1, 1, 0,16,30.00,40.00,Monday
201,1.2727121253251379
2,1, 1, 1, 0,16,40.00,50.00,Monday
201,1.017728828104057
2,1, 1, 1, 0,16,50.00,60.00,Monday
201,0.7629413842053556
2,1, 1, 1, 0,17, 0.00,10.00,Monday
201,0.0
2,1, 1, 1, 0,17,10.00,20.00,Monday
201,0.0
2,1, 1, 1, 0,17,20.00,30.00,Monday
201,0.0
2,1, 1, 1, 0,17,30.00,40.00,Monday
201,0.0
2,1, 1, 1, 0,17,40.00,50.00,Monday
201,0.0
2,1, 1, 1, 0,17,50.00,60.00,Monday
201,0.0
2,1, 1, 1, 0,18, 0.00,10.00,Monday
201,0.0
2,1, 1, 1, 0,18,10.00,20.00,Monday
201,0.0
2,1, 1, 1, 0,18,20.00,30.00,Monday
201,0.0
2,1, 1, 1, 0,18,30.00,40.00,Monday
201,0.0
2,1, 1, 1, 0,18,40.00,50.00,Monday
201,0.0
2,1, 1, 1, 0,18,50.00,60.00,Monday
201,0.0
2,1, 1, 1, 0,19, 0.00,10.00,Monday
201,0.0
2,1, 1, 1, 0,19,10.00,20.00,Monday
201,0.0
2,1, 1, 1, 0,19,20.00,30.00,Monday
201,0.0
2,1, 1, 1, 0,19,30.00,40.00,Monday
201,0.0
2,1, 1, 1, 0,19,40.00,50.00,Monday
201,0.0
2,1, 1, 1, 0,19,50.00,60.00,Monday
201,0.0
2,1, 1, 1, 0,20, 0.00,10.00,Monday
201,0.0
2,1, 1, 1, 0,20,10.00,20.00,Monday
201,0.0
2,1, 1, 1, 0,20,20.00,30.00,Monday
201,0.0
2,1, 1, 1, 0,20,30.00,40.00,Monday
201,0.0
2,1, 1, 1, 0,20,40.00,50.00,Monday
201,0.0
2,1, 1, 1, 0,20,50.00,60.00,Monday
201,0.0
2,1, 1, 1, 0,21, 0.00,10.00,Monday
201,0.0
2,1, 1, 1, 0,21,10.00,20.00,Monday
201,0.0
2,1, 1, 1, 0,21,20.00,30.00,Monday
201,0.0
2,1, 1, 1, 0,21,30.00,40.00,Monday
201,0.0
2,1, 1, 1, 0,21,40.00,50.00,Monday
201,0.0
2,1, 1, 1, 0,21,50.00,60.00,Monday
201,0.0
2,1, 1, 1, 0,22, 0.00,10.00,Monday
201,0.0
2,1, 1, 1, 0,22,10.00,20.00,Monday
201,0.0
2,1, 1, 1, 0,22,20.00,30.00,Monday
201,0.0
2,1, 1, 1, 0,22,30.00,40.00,Monday
201,0.0
2,1, 1, 1, 0,22,40.00,50.00,Monday
201,0.0
2,1, 1, 1, 0,22,50.00,60.00,Monday
201,0.0
2,1, 1, 1, 0,23, 0.00,10.00,Monday
201,0.0
2,1, 1, 1, 0,23,10.00,20.00,Monday
201,0.0
2,1, 1, 1, 0,23,20.00,30.00,Monday
201,0.0
2,1, 1, 1, 0,23,30.00,40.00,Monday
201,0.0
2,1, 1, 1, 0,23,40.00,50.00,Monday
201,0.0
2,1, 1, 1, 0,23,50.00,60.00,Monday
201,0.0
2,1, 1, 1, 0,24, 0.00,10.00,Monday
201,0.0
2,1, 1, 1, 0,24,10.00,20.00,Monday
201,0.0
2,1, 1, 1, 0,24,20.00,30.00,Monday
201,0.0
2,1, 1, 1, 0,24,30.00,40.00,Monday
201,0.0
2,1, 1, 1, 0,24,40.00,50.00,Monday
201,0.0
2,1, 1, 1, 0,24,50.00,60.00,Monday
201,0.0
2,2, 1, 2, 0, 1, 0.00,10.00,Tuesday
201,0.0
2,2, 1, 2, 0, 1,10.00,20.00,Tuesday
201,0.0
2,2, 1, 2, 0, 1,20.00,30.00,Tuesday
201,0.0
2,2, 1, 2, 0, 1,30.00,40.00,Tuesday
201,0.0
2,2, 1, 2, 0, 1,40.00,50.00,Tuesday
201,0.0
2,2, 1, 2, 0, 1,50.00,60.00,Tuesday
201,0.0
2,2, 1, 2, 0, 2, 0.00,10.00,Tuesday
201,0.0
2,2, 1, 2, 0, 2,10.00,20.00,Tuesday
201,0.0
2,2, 1, 2, 0, 2,20.00,30.00,Tuesday
201,0.0
2,2, 1, 2, 0, 2,30.00,40.00,Tuesday
201,0.0
2,2, 1, 2, 0, 2,40.00,50.00,Tuesday
201,0.0
2,2, 1, 2, 0, 2,50.00,60.00,Tuesday
201,0.0
2,2, 1, 2, 0, 3, 0.00,10.00,Tuesday
201,0.0
2,2, 1, 2, 0, 3,10.00,20.00,Tuesday
201,0.0
2,2, 1, 2, 0, 3,20.00,30.00,Tuesday
201,0.0
2,2, 1, 2, 0, 3,30.00,40.00,Tuesday
201,0.0
2,2, 1, 2, 0, 3,40.00,50.00,Tuesday
201,0.0
2,2, 1, 2, 0, 3,50.00,60.00,Tuesday
201,0.0
2,2, 1, 2, 0, 4, 0.00,10.00,Tuesday
201,0.0
2,2, 1, 2, 0, 4,10.00,20.00,Tuesday
201,0.0
2,2, 1, 2, 0, 4,20.00,30.00,Tuesday
201,0.0
2,2, 1, 2, 0, 4,30.00,40.00,Tuesday
201,0.0
2,2, 1, 2, 0, 4,40.00,50.00,Tuesday
201,0.0
2,2, 1, 2, 0, 4,50.00,60.00,Tuesday
201,0.0
2,2, 1, 2, 0, 5, 0.00,10.00,Tuesday
201,0.0
2,2, 1, 2, 0, 5,10.00,20.00,Tuesday
201,0.0
2,2, 1, 2, 0, 5,20.00,30.00,Tuesday
201,0.0
2,2, 1, 2, 0, 5,30.00,40.00,Tuesday
201,0.0
2,2, 1, 2, 0, 5,40.00,50.00,Tuesday
201,0.0
2,2, 1, 2, 0, 5,50.00,60.00,Tuesday
201,0.0
2,2, 1, 2, 0, 6, 0.00,10.00,Tuesday
201,0.0
2,2, 1, 2, 0, 6,10.00,20.00,Tuesday
201,0.0
2,2, 1, 2, 0, 6,20.00,30.00,Tuesday
201,0.0
2,2, 1, 2, 0, 6,30.00,40.00,Tuesday
201,0.0
2,2, 1, 2, 0, 6,40.00,50.00,Tuesday
201,0.0
2,2, 1, 2, 0, 6,50.00,60.00,Tuesday
201,0.0
2,2, 1, 2, 0, 7, 0.00,10.00,Tuesday
201,0.0
2,2, 1, 2, 0, 7,10.00,20.00,Tuesday
201,0.0
2,2, 1, 2, 0, 7,20.00,30.00,Tuesday
201,0.0
2,2, 1, 2, 0, 7,30.00,40.00,Tuesday
201,0.0
2,2, 1, 2, 0, 7,40.00,50.00,Tuesday
201,0.0
2,2, 1, 2, 0, 7,50.00,60.00,Tuesday
201,0.0
2,2, 1, 2, 0, 8, 0.00,10.00,Tuesday
201,0.0
2,2, 1, 2, 0, 8,10.00,20.00,Tuesday
201,0.0
2,2, 1, 2, 0, 8,20.00,30.00,Tuesday
201,0.0
2,2, 1, 2, 0, 8,30.00,40.00,Tuesday
201,0.0
2,2, 1, 2, 0, 8,40.00,50.00,Tuesday
201,0.0
2,2, 1, 2, 0, 8,50.00,60.00,Tuesday
201,0.0
2,2, 1, 2, 0, 9, 0.00,10.00,Tuesday
201,0.0
2,2, 1, 2, 0, 9,10.00,20.00,Tuesday
201,0.0
2,2, 1, 2, 0, 9,20.00,30.00,Tuesday
201,0.0
2,2, 1, 2, 0, 9,30.00,40.00,Tuesday
201,0.0
2,2, 1, 2, 0, 9,40.00,50.00,Tuesday
201,6.543429800132024
2,2, 1, 2, 0, 9,50.00,60.00,Tuesday
201,6.257256939591793
2,2, 1, 2, 0,10, 0.00,10.00,Tuesday
201,6.91236548425743
2,2, 1, 2, 0,10,10.00,20.00,Tuesday
201,7.8531406261257155
2,2, 1, 2, 0,10,20.00,30.00,Tuesday
201,8.797209729289959
2,2, 1, 2, 0,10,30.00,40.00,Tuesday
201,10.447319437036848
2,2, 1, 2, 0,10,40.00,50.00,Tuesday
201,12.100409020881798
2,2, 1, 2, 0,10,50.00,60.00,Tuesday
201,13.756582869547477
2,2, 1, 2, 0,11, 0.00,10.00,Tuesday
201,15.415913259609736
2,2, 1, 2, 0,11,10.00,20.00,Tuesday
201,17.078458778308026
2,2, 1, 2, 0,11,20.00,30.00,Tuesday
201,18.74427714317755
2,2, 1, 2, 0,11,30.00,40.00,Tuesday
201,21.662871868728775
2,2, 1, 2, 0,11,40.00,50.00,Tuesday
201,25.42527482506535
2,2, 1, 2, 0,11,50.00,60.00,Tuesday
201,29.326053363337515
2,2, 1, 2, 0,12, 0.00,10.00,Tuesday
201,33.38425547665578
2,2, 1, 2, 0,12,10.00,20.00,Tuesday
201,37.6234853494072
2,2, 1, 2, 0,12,20.00,30.00,Tuesday
201,42.0723790076091
2,2, 1, 2, 0,12,30.00,40.00,Tuesday
201,37.617316323978784
2,2, 1, 2, 0,12,40.00,50.00,Tuesday
201,33.674136414479584
2,2, 1, 2, 0,12,50.00,60.00,Tuesday
201,30.137274602586107
2,2, 1, 2, 0,13, 0.00,10.00,Tuesday
201,26.927439471106798
2,2, 1, 2, 0,13,10.00,20.00,Tuesday
201,24.69164458141269
2,2, 1, 2, 0,13,20.00,30.00,Tuesday
201,22.919697980957928
2,2, 1, 2, 0,13,30.00,40.00,Tuesday
201,21.506461417522953
2,2, 1, 2, 0,13,40.00,50.00,Tuesday
201,20.096725699374524
2,2, 1, 2, 0,13,50.00,60.00,Tuesday
201,18.690191359777735
2,2, 1, 2, 0,14, 0.00,10.00,Tuesday
201,17.286639410461614
2,2, 1, 2, 0,14,10.00,20.00,Tuesday
201,15.885918351044129
2,2, 1, 2, 0,14,20.00,30.00,Tuesday
201,14.487934485555584
2,2, 1, 2, 0,14,30.00,40.00,Tuesday
201,13.267128021277918
2,2, 1, 2, 0,14,40.00,50.00,Tuesday
201,12.048358348683582
2,2, 1, 2, 0,14,50.00,60.00,Tuesday
201,10.831642784928784
2,2, 1, 2, 0,15, 0.00,10.00,Tuesday
201,9.617027435031318
2,2, 1, 2, 0,15,10.00,20.00,Tuesday
201,8.404588878054193
2,2, 1, 2, 0,15,20.00,30.00,Tuesday
201,7.194439771813695
2,2, 1, 2, 0,15,30.00,40.00,Tuesday
201,13.642011287227449
2,2, 1, 2, 0,15,40.00,50.00,Tuesday
201,22.510925970570312
2,2, 1, 2, 0,15,50.00,60.00,Tuesday
201,34.47444705742637
2,2, 1, 2, 0,16, 0.00,10.00,Tuesday
201,48.257166382161394
2,2, 1, 2, 0,16,10.00,20.00,Tuesday
201,54.82373294544539
2,2, 1, 2, 0,16,20.00,30.00,Tuesday
201,51.08115146853466
2,2, 1, 2, 0,16,30.00,40.00,Tuesday
201,46.941522314217046
2,2, 1, 2, 0,16,40.00,50.00,Tuesday
201,42.92855176573017
2,2, 1, 2, 0,16,50.00,60.00,Tuesday
201,37.396530891018045
2,2, 1, 2, 0,17, 0.00,10.00,Tuesday
201,0.0
2,2, 1, 2, 0,17,10.00,20.00,Tuesday
201,0.0
2,2, 1, 2, 0,17,20.00,30.00,Tuesday
201,0.0
2,2, 1, 2, 0,17,30.00,40.00,Tuesday
201,0.0
2,2, 1, 2, 0,17,40.00,50.00,Tuesday
201,0.0
2,2, 1, 2, 0,17,50.00,60.00,Tuesday
201,0.0
2,2, 1, 2, 0,18, 0.00,10.00,Tuesday
201,0.0
2,2, 1, 2, 0,18,10.00,20.00,Tuesday
201,0.0
2,2, 1, 2, 0,18,20.00,30.00,Tuesday
201,0.0
2,2, 1, 2, 0,18,30.00,40.00,Tuesday
201,0.0
2,2, 1, 2, 0,18,40.00,50.00,Tuesday
201,0.0
2,2, 1, 2, 0,18,50.00,60.00,Tuesday
201,0.0
2,2, 1, 2, 0,19, 0.00,10.00,Tuesday
201,0.0
2,2, 1, 2, 0,19,10.00,20.00,Tuesday
201,0.0
2,2, 1, 2, 0,19,20.00,30.00,Tuesday
201,0.0
2,2, 1, 2, 0,19,30.00,40.00,Tuesday
201,0.0
2,2, 1, 2, 0,19,40.00,50.00,Tuesday
201,0.0
2,2, 1, 2, 0,19,50.00,60.00,Tuesday
201,0.0
2,2, 1, 2, 0,20, 0.00,10.00,Tuesday
201,0.0
2,2, 1, 2, 0,20,10.00,20.00,Tuesday
201,0.0
2,2, 1, 2, 0,20,20.00,30.00,Tuesday
201,0.0
2,2, 1, 2, 0,20,30.00,40.00,Tuesday
201,0.0
2,2, 1, 2, 0,20,40.00,50.00,Tuesday
201,0.0
2,2, 1, 2, 0,20,50.00,60.00,Tuesday
201,0.0
2,2, 1, 2, 0,21, 0.00,10.00,Tuesday
201,0.0
2,2, 1, 2, 0,21,10.00,20.00,Tuesday
201,0.0
2,2, 1, 2, 0,21,20.00,30.00,Tuesday
201,0.0
2,2, 1, 2, 0,21,30.00,40.00,Tuesday
201,0.0
2,2, 1, 2, 0,21,40.00,50.00,Tuesday
201,0.0
2,2, 1, 2, 0,21,50.00,60.00,Tuesday
201,0.0
2,2, 1, 2, 0,22, 0.00,10.00,Tuesday
201,0.0
2,2, 1, 2, 0,22,10.00,20.00,Tuesday
201,0.0
2,2, 1, 2, 0,22,20.00,30.00,Tuesday
201,0.0
2,2, 1, 2, 0,22,30.00,40.00,Tuesday
201,0.0
2,2, 1, 2, 0,22,40.00,50.00,Tuesday
201,0.0
2,2, 1, 2, 0,22,50.00,60.00,Tuesday
201,0.0
2,2, 1, 2, 0,23, 0.00,10.00,Tuesday
201,0.0
2,2, 1, 2, 0,23,10.00,20.00,Tuesday
201,0.0
2,2, 1, 2, 0,23,20.00,30.00,Tuesday
201,0.0
2,2, 1, 2, 0,23,30.00,40.00,Tuesday
201,0.0
2,2, 1, 2, 0,23,40.00,50.00,Tuesday
201,0.0
2,2, 1, 2, 0,23,50.00,60.00,Tuesday
201,0.0
2,2, 1, 2, 0,24, 0.00,10.00,Tuesday
201,0.0
2,2, 1, 2, 0,24,10.00,20.00,Tuesday
201,0.0
2,2, 1, 2, 0,24,20.00,30.00,Tuesday
201,0.0
2,2, 1, 2, 0,24,30.00,40.00,Tuesday
201,0.0
2,2, 1, 2, 0,24,40.00,50.00,Tuesday
201,0.0
2,2, 1, 2, 0,24,50.00,60.00,Tuesday
201,0.0
2,3, 1, 3, 0, 1, 0.00,10.00,Wednesday
201,0.0
2,3, 1, 3, 0, 1,10.00,20.00,Wednesday
201,0.0
2,3, 1, 3, 0, 1,20.00,30.00,Wednesday
201,0.0
2,3, 1, 3, 0, 1,30.00,40.00,Wednesday
201,0.0
2,3, 1, 3, 0, 1,40.00,50.00,Wednesday
201,0.0
2,3, 1, 3, 0, 1,50.00,60.00,Wednesday
201,0.0
2,3, 1, 3, 0, 2, 0.00,10.00,Wednesday
201,0.0
2,3, 1, 3, 0, 2,10.00,20.00,Wednesday
201,0.0
2,3, 1, 3, 0, 2,20.00,30.00,Wednesday
201,0.0
2,3, 1, 3, 0, 2,30.00,40.00,Wednesday
201,0.0
2,3, 1, 3, 0, 2,40.00,50.00,Wednesday
201,0.0
2,3, 1, 3, 0, 2,50.00,60.00,Wednesday
201,0.0
2,3, 1, 3, 0, 3, 0.00,10.00,Wednesday
201,0.0
2,3, 1, 3, 0, 3,10.00,20.00,Wednesday
201,0.0
2,3, 1, 3, 0, 3,20.00,30.00,Wednesday
201,0.0
2,3, 1, 3, 0, 3,30.00,40.00,Wednesday
201,0.0
2,3, 1, 3, 0, 3,40.00,50.00,Wednesday
201,0.0
2,3, 1, 3, 0, 3,50.00,60.00,Wednesday
201,0.0
2,3, 1, 3, 0, 4, 0.00,10.00,Wednesday
201,0.0
2,3, 1, 3, 0, 4,10.00,20.00,Wednesday
201,0.0
2,3, 1, 3, 0, 4,20.00,30.00,Wednesday
201,0.0
2,3, 1, 3, 0, 4,30.00,40.00,Wednesday
201,0.0
2,3, 1, 3, 0, 4,40.00,50.00,Wednesday
201,0.0
2,3, 1, 3, 0, 4,50.00,60.00,Wednesday
201,0.0
2,3, 1, 3, 0, 5, 0.00,10.00,Wednesday
201,0.0
2,3, 1, 3, 0, 5,10.00,20.00,Wednesday
201,0.0
2,3, 1, 3, 0, 5,20.00,30.00,Wednesday
201,0.0
2,3, 1, 3, 0, 5,30.00,40.00,Wednesday
201,0.0
2,3, 1, 3, 0, 5,40.00,50.00,Wednesday
201,0.0
2,3, 1, 3, 0, 5,50.00,60.00,Wednesday
201,0.0
2,3, 1, 3, 0, 6, 0.00,10.00,Wednesday
201,0.0
2,3, 1, 3, 0, 6,10.00,20.00,Wednesday
201,0.0
2,3, 1, 3, 0, 6,20.00,30.00,Wednesday
201,0.0
2,3, 1, 3, 0, 6,30.00,40.00,Wednesday
201,0.0
2,3, 1, 3, 0, 6,40.00,50.00,Wednesday
201,0.0
2,3, 1, 3, 0, 6,50.00,60.00,Wednesday
201,0.0
2,3, 1, 3, 0, 7, 0.00,10.00,Wednesday
201,0.0
2,3, 1, 3, 0, 7,10.00,20.00,Wednesday
201,0.0
2,3, 1, 3, 0, 7,20.00,30.00,Wednesday
201,0.0
2,3, 1, 3, 0, 7,30.00,40.00,Wednesday
201,0.0
2,3, 1, 3, 0, 7,40.00,50.00,Wednesday
201,0.0
2,3, 1, 3, 0, 7,50.00,60.00,Wednesday
201,0.0
2,3, 1, 3, 0, 8, 0.00,10.00,Wednesday
201,0.0
2,3, 1, 3, 0, 8,10.00,20.00,Wednesday
201,0.0
2,3, 1, 3, 0, 8,20.00,30.00,Wednesday
201,0.0
2,3, 1, 3, 0, 8,30.00,40.00,Wednesday
201,0.0
2,3, 1, 3, 0, 8,40.00,50.00,Wednesday
201,0.0
2,3, 1, 3, 0, 8,50.00,60.00,Wednesday
201,0.0
2,3, 1, 3, 0, 9, 0.00,10.00,Wednesday
201,0.0
2,3, 1, 3, 0, 9,10.00,20.00,Wednesday
201,0.0
2,3, 1, 3, 0, 9,20.00,30.00,Wednesday
201,0.0
2,3, 1, 3, 0, 9,30.00,40.00,Wednesday
201,0.0
2,3, 1, 3, 0, 9,40.00,50.00,Wednesday
201,37.44952998859792
2,3, 1, 3, 0, 9,50.00,60.00,Wednesday
201,32.26570952144938
2,3, 1, 3, 0,10, 0.00,10.00,Wednesday
201,23.55690471854651
2,3, 1, 3, 0,10,10.00,20.00,Wednesday
201,20.207111902448855
2,3, 1, 3, 0,10,20.00,30.00,Wednesday
201,11.95827765031559
2,3, 1, 3, 0,10,30.00,40.00,Wednesday
201,13.754578349770826
2,3, 1, 3, 0,10,40.00,50.00,Wednesday
201,15.63934145320886
2,3, 1, 3, 0,10,50.00,60.00,Wednesday
201,17.623166895425186
2,3, 1, 3, 0,11, 0.00,10.00,Wednesday
201,19.694662920788545
2,3, 1, 3, 0,11,10.00,20.00,Wednesday
201,21.849060063968295
2,3, 1, 3, 0,11,20.00,30.00,Wednesday
201,24.08591793064021
2,3, 1, 3, 0,11,30.00,40.00,Wednesday
201,33.04366427045728
2,3, 1, 3, 0,11,40.00,50.00,Wednesday
201,42.30790082566631
2,3, 1, 3, 0,11,50.00,60.00,Wednesday
201,51.88162987258719
2,3, 1, 3, 0,12, 0.00,10.00,Wednesday
201,73.5426780926948
2,3, 1, 3, 0,12,10.00,20.00,Wednesday
201,84.9727915247787
2,3, 1, 3, 0,12,20.00,30.00,Wednesday
201,96.8054020359942
2,3, 1, 3, 0,12,30.00,40.00,Wednesday
201,86.76326756513143
2,3, 1, 3, 0,12,40.00,50.00,Wednesday
201,77.28260215636145
2,3, 1, 3, 0,12,50.00,60.00,Wednesday
201,56.698031903196515
2,3, 1, 3, 0,13, 0.00,10.00,Wednesday
201,48.76601609194238
2,3, 1, 3, 0,13,10.00,20.00,Wednesday
201,41.08435159839125
2,3, 1, 3, 0,13,20.00,30.00,Wednesday
201,33.62158833851703
2,3, 1, 3, 0,13,30.00,40.00,Wednesday
201,30.662842658454654
2,3, 1, 3, 0,13,40.00,50.00,Wednesday
201,27.88815981516404
2,3, 1, 3, 0,13,50.00,60.00,Wednesday
201,25.318936072360337
2,3, 1, 3, 0,14, 0.00,10.00,Wednesday
201,23.6369850699487
2,3, 1, 3, 0,14,10.00,20.00,Wednesday
201,21.95916853657006
2,3, 1, 3, 0,14,20.00,30.00,Wednesday
201,20.28524386294369
2,3, 1, 3, 0,14,30.00,40.00,Wednesday
201,20.026645466986544
2,3, 1, 3, 0,14,40.00,50.00,Wednesday
201,19.76953940490009
2,3, 1, 3, 0,14,50.00,60.00,Wednesday
201,19.514279633451824
2,3, 1, 3, 0,15, 0.00,10.00,Wednesday
201,19.26134255987438
2,3, 1, 3, 0,15,10.00,20.00,Wednesday
201,19.011375359618054
2,3, 1, 3, 0,15,20.00,30.00,Wednesday
201,19.162797171452254
2,3, 1, 3, 0,15,30.00,40.00,Wednesday
201,16.12537349875797
2,3, 1, 3, 0,15,40.00,50.00,Wednesday
201,13.493509553349254
2,3, 1, 3, 0,15,50.00,60.00,Wednesday
201,10.870238124089695
2,3, 1, 3, 0,16, 0.00,10.00,Wednesday
201,8.256633396088565
2,3, 1, 3, 0,16,10.00,20.00,Wednesday
201,5.654757313620405
2,3, 1, 3, 0,16,20.00,30.00,Wednesday
201,3.0687606428019114
2,3, 1, 3, 0,16,30.00,40.00,Wednesday
201,2.5563450245203323
2,3, 1, 3, 0,16,40.00,50.00,Wednesday
201,2.0445859410329867
2,3, 1, 3, 0,16,50.00,60.00,Wednesday
201,1.5330671709549688
2,3, 1, 3, 0,17, 0.00,10.00,Wednesday
201,0.0
2,3, 1, 3, 0,17,10.00,20.00,Wednesday
201,0.0
2,3, 1, 3, 0,17,20.00,30.00,Wednesday
201,0.0
2,3, 1, 3, 0,17,30.00,40.00,Wednesday
201,0.0
2,3, 1, 3, 0,17,40.00,50.00,Wednesday
201,0.0
2,3, 1, 3, 0,17,50.00,60.00,Wednesday
201,0.0
2,3, 1, 3, 0,18, 0.00,10.00,Wednesday
201,0.0
2,3, 1, 3, 0,18,10.00,20.00,Wednesday
201,0.0
2,3, 1, 3, 0,18,20.00,30.00,Wednesday
201,0.0
2,3, 1, 3, 0,18,30.00,40.00,Wednesday
201,0.0
2,3, 1, 3, 0,18,40.00,50.00,Wednesday
201,0.0
2,3, 1, 3, 0,18,50.00,60.00,Wednesday
201,0.0
2,3, 1, 3, 0,19, 0.00,10.00,Wednesday
201,0.0
2,3, 1, 3, 0,19,10.00,20.00,Wednesday
201,0.0
2,3, 1, 3, 0,19,20.00,30.00,Wednesday
201,0.0
2,3, 1, 3, 0,19,30.00,40.00,Wednesday
201,0.0
2,3, 1, 3, 0,19,40.00,50.00,Wednesday
201,0.0
2,3, 1, 3, 0,19,50.00,60.00,Wednesday
201,0.0
2,3, 1, 3, 0,20, 0.00,10.00,Wednesday
201,0.0
2,3, 1, 3, 0,20,10.00,20.00,Wednesday
201,0.0
2,3, 1, 3, 0,20,20.00,30.00,Wednesday
201,0.0
2,3, 1, 3, 0,20,30.00,40.00,Wednesday
201,0.0
2,3, 1, 3, 0,20,40.00,50.00,Wednesday
201,0.0
2,3, 1, 3, 0,20,50.00,60.00,Wednesday
201,0.0
2,3, 1, 3, 0,21, 0.00,10.00,Wednesday
201,0.0
2,3, 1, 3, 0,21,10.00,20.00,Wednesday
201,0.0
2,3, 1, 3, 0,21,20.00,30.00,Wednesday
201,0.0
2,3, 1, 3, 0,21,30.00,40.00,Wednesday
201,0.0
2,3, 1, 3, 0,21,40.00,50.00,Wednesday
201,0.0
2,3, 1, 3, 0,21,50.00,60.00,Wednesday
201,0.0
2,3, 1, 3, 0,22, 0.00,10.00,Wednesday
201,0.0
2,3, 1, 3, 0,22,10.00,20.00,Wednesday
201,0.0
2,3, 1, 3, 0,22,20.00,30.00,Wednesday
201,0.0
2,3, 1, 3, 0,22,30.00,40.00,Wednesday
201,0.0
2,3, 1, 3, 0,22,40.00,50.00,Wednesday
201,0.0
2,3, 1, 3, 0,22,50.00,60.00,Wednesday
201,0.0
2,3, 1, 3, 0,23, 0.00,10.00,Wednesday
201,0.0
2,3, 1, 3, 0,23,10.00,20.00,Wednesday
201,0.0
2,3, 1, 3, 0,23,20.00,30.00,Wednesday
201,0.0
2,3, 1, 3, 0,23,30.00,40.00,Wednesday
201,0.0
2,3, 1, 3, 0,23,40.00,50.00,Wednesday
201,0.0
2,3, 1, 3, 0,23,50.00,60.00,Wednesday
201,0.0
2,3, 1, 3, 0,24, 0.00,10.00,Wednesday
201,0.0
2,3, 1, 3, 0,24,10.00,20.00,Wednesday
201,0.0
2,3, 1, 3, 0,24,20.00,30.00,Wednesday
201,0.0
2,3, 1, 3, 0,24,30.00,40.00,Wednesday
201,0.0
2,3, 1, 3, 0,24,40.00,50.00,Wednesday
201,0.0
2,3, 1, 3, 0,24,50.00,60.00,Wednesday
201,0.0
2,4, 1, 4, 0, 1, 0.00,10.00,Thursday
201,0.0
2,4, 1, 4, 0, 1,10.00,20.00,Thursday
201,0.0
2,4, 1, 4, 0, 1,20.00,30.00,Thursday
201,0.0
2,4, 1, 4, 0, 1,30.00,40.00,Thursday
201,0.0
2,4, 1, 4, 0, 1,40.00,50.00,Thursday
201,0.0
2,4, 1, 4, 0, 1,50.00,60.00,Thursday
201,0.0
2,4, 1, 4, 0, 2, 0.00,10.00,Thursday
201,0.0
2,4, 1, 4, 0, 2,10.00,20.00,Thursday
201,0.0
2,4, 1, 4, 0, 2,20.00,30.00,Thursday
201,0.0
2,4, 1, 4, 0, 2,30.00,40.00,Thursday
201,0.0
2,4, 1, 4, 0, 2,40.00,50.00,Thursday
201,0.0
2,4, 1, 4, 0, 2,50.00,60.00,Thursday
201,0.0
2,4, 1, 4, 0, 3, 0.00,10.00,Thursday
201,0.0
2,4, 1, 4, 0, 3,10.00,20.00,Thursday
201,0.0
2,4, 1, 4, 0, 3,20.00,30.00,Thursday
201,0.0
2,4, 1, 4, 0, 3,30.00,40.00,Thursday
201,0.0
2,4, 1, 4, 0, 3,40.00,50.00,Thursday
201,0.0
2,4, 1, 4, 0, 3,50.00,60.00,Thursday
201,0.0
2,4, 1, 4, 0, 4, 0.00,10.00,Thursday
201,0.0
2,4, 1, 4, 0, 4,10.00,20.00,Thursday
201,0.0
2,4, 1, 4, 0, 4,20.00,30.00,Thursday
201,0.0
2,4, 1, 4, 0, 4,30.00,40.00,Thursday
201,0.0
2,4, 1, 4, 0, 4,40.00,50.00,Thursday
201,0.0
2,4, 1, 4, 0, 4,50.00,60.00,Thursday
201,0.0
2,4, 1, 4, 0, 5, 0.00,10.00,Thursday
201,0.0
2,4, 1, 4, 0, 5,10.00,20.00,Thursday
201,0.0
2,4, 1, 4, 0, 5,20.00,30.00,Thursday
201,0.0
2,4, 1, 4, 0, 5,30.00,40.00,Thursday
201,0.0
2,4, 1, 4, 0, 5,40.00,50.00,Thursday
201,0.0
2,4, 1, 4, 0, 5,50.00,60.00,Thursday
201,0.0
2,4, 1, 4, 0, 6, 0.00,10.00,Thursday
201,0.0
2,4, 1, 4, 0, 6,10.00,20.00,Thursday
201,0.0
2,4, 1, 4, 0, 6,20.00,30.00,Thursday
201,0.0
2,4, 1, 4, 0, 6,30.00,40.00,Thursday
201,0.0
2,4, 1, 4, 0, 6,40.00,50.00,Thursday
201,0.0
2,4, 1, 4, 0, 6,50.00,60.00,Thursday
201,0.0
2,4, 1, 4, 0, 7, 0.00,10.00,Thursday
201,0.0
2,4, 1, 4, 0, 7,10.00,20.00,Thursday
201,0.0
2,4, 1, 4, 0, 7,20.00,30.00,Thursday
201,0.0
2,4, 1, 4, 0, 7,30.00,40.00,Thursday
201,0.0
2,4, 1, 4, 0, 7,40.00,50.00,Thursday
201,0.0
2,4, 1, 4, 0, 7,50.00,60.00,Thursday
201,0.0
2,4, 1, 4, 0, 8, 0.00,10.00,Thursday
201,0.0
2,4, 1, 4, 0, 8,10.00,20.00,Thursday
201,0.0
2,4, 1, 4, 0, 8,20.00,30.00,Thursday
201,0.0
2,4, 1, 4, 0, 8,30.00,40.00,Thursday
201,0.0
2,4, 1, 4, 0, 8,40.00,50.00,Thursday
201,0.0
2,4, 1, 4, 0, 8,50.00,60.00,Thursday
201,0.0
2,4, 1, 4, 0, 9, 0.00,10.00,Thursday
201,0.0
2,4, 1, 4, 0, 9,10.00,20.00,Thursday
201,0.0
2,4, 1, 4, 0, 9,20.00,30.00,Thursday
201,0.0
2,4, 1, 4, 0, 9,30.00,40.00,Thursday
201,0.0
2,4, 1, 4, 0, 9,40.00,50.00,Thursday
201,30.208942761525584
2,4, 1, 4, 0, 9,50.00,60.00,Thursday
201,32.01000134581764
2,4, 1, 4, 0,10, 0.00,10.00,Thursday
201,33.90826634095543
2,4, 1, 4, 0,10,10.00,20.00,Thursday
201,36.280227281444574
2,4, 1, 4, 0,10,20.00,30.00,Thursday
201,39.14042997126436
2,4, 1, 4, 0,10,30.00,40.00,Thursday
201,32.0565274083641
2,4, 1, 4, 0,10,40.00,50.00,Thursday
201,27.35103961071393
2,4, 1, 4, 0,10,50.00,60.00,Thursday
201,24.487938459879558
2,4, 1, 4, 0,11, 0.00,10.00,Thursday
201,22.685894876004134
2,4, 1, 4, 0,11,10.00,20.00,Thursday
201,21.534245910534935
2,4, 1, 4, 0,11,20.00,30.00,Thursday
201,20.801657261219304
2,4, 1, 4, 0,11,30.00,40.00,Thursday
201,23.98024055681845
2,4, 1, 4, 0,11,40.00,50.00,Thursday
201,27.250799383340507
2,4, 1, 4, 0,11,50.00,60.00,Thursday
201,30.629823412258286
2,4, 1, 4, 0,12, 0.00,10.00,Thursday
201,34.135746942865495
2,4, 1, 4, 0,12,10.00,20.00,Thursday
201,37.78964093626891
2,4, 1, 4, 0,12,20.00,30.00,Thursday
201,41.616020793338386
2,4, 1, 4, 0,12,30.00,40.00,Thursday
201,44.47582729145554
2,4, 1, 4, 0,12,40.00,50.00,Thursday
201,47.51584580581601
2,4, 1, 4, 0,12,50.00,60.00,Thursday
201,50.763679282796254
2,4, 1, 4, 0,13, 0.00,10.00,Thursday
201,54.25381221459472
2,4, 1, 4, 0,13,10.00,20.00,Thursday
201,58.0293251840151
2,4, 1, 4, 0,13,20.00,30.00,Thursday
201,62.14422088212229
2,4, 1, 4, 0,13,30.00,40.00,Thursday
201,64.85128596165983
2,4, 1, 4, 0,13,40.00,50.00,Thursday
201,67.91684952595008
2,4, 1, 4, 0,13,50.00,60.00,Thursday
201,71.41134786905486
2,4, 1, 4, 0,14, 0.00,10.00,Thursday
201,75.42778175882141
2,4, 1, 4, 0,14,10.00,20.00,Thursday
201,80.08959235524053
2,4, 1, 4, 0,14,20.00,30.00,Thursday
201,85.56222299301061
2,4, 1, 4, 0,14,30.00,40.00,Thursday
201,74.25171886393379
2,4, 1, 4, 0,14,40.00,50.00,Thursday
201,63.53768326770163
2,4, 1, 4, 0,14,50.00,60.00,Thursday
201,53.352205388296255
2,4, 1, 4, 0,15, 0.00,10.00,Thursday
201,43.6486646002235
2,4, 1, 4, 0,15,10.00,20.00,Thursday
201,34.40709282561716
2,4, 1, 4, 0,15,20.00,30.00,Thursday
201,25.646620290328052
2,4, 1, 4, 0,15,30.00,40.00,Thursday
201,21.989386262419572
2,4, 1, 4, 0,15,40.00,50.00,Thursday
201,18.387229955053183
2,4, 1, 4, 0,15,50.00,60.00,Thursday
201,14.810697159093689
2,4, 1, 4, 0,16, 0.00,10.00,Thursday
201,12.123448947147386
2,4, 1, 4, 0,16,10.00,20.00,Thursday
201,9.676825637073565
2,4, 1, 4, 0,16,20.00,30.00,Thursday
201,7.237106059183779
2,4, 1, 4, 0,16,30.00,40.00,Thursday
201,6.03098117617432
2,4, 1, 4, 0,16,40.00,50.00,Thursday
201,4.826244139727483
2,4, 1, 4, 0,16,50.00,60.00,Thursday
201,3.6209047722193315
2,4, 1, 4, 0,17, 0.00,10.00,Thursday
201,0.0
2,4, 1, 4, 0,17,10.00,20.00,Thursday
201,0.0
2,4, 1, 4, 0,17,20.00,30.00,Thursday
201,0.0
2,4, 1, 4, 0,17,30.00,40.00,Thursday
201,0.0
2,4, 1, 4, 0,17,40.00,50.00,Thursday
201,0.0
2,4, 1, 4, 0,17,50.00,60.00,Thursday
201,0.0
2,4, 1, 4, 0,18, 0.00,10.00,Thursday
201,0.0
2,4, 1, 4, 0,18,10.00,20.00,Thursday
201,0.0
2,4, 1, 4, 0,18,20.00,30.00,Thursday
201,0.0
2,4, 1, 4, 0,18,30.00,40.00,Thursday
201,0.0
2,4, 1, 4, 0,18,40.00,50.00,Thursday
201,0.0
2,4, 1, 4, 0,18,50.00,60.00,Thursday
201,0.0
2,4, 1, 4, 0,19, 0.00,10.00,Thursday
201,0.0
2,4, 1, 4, 0,19,10.00,20.00,Thursday
201,0.0
2,4, 1, 4, 0,19,20.00,30.00,Thursday
201,0.0
2,4, 1, 4, 0,19,30.00,40.00,Thursday
201,0.0
2,4, 1, 4, 0,19,40.00,50.00,Thursday
201,0.0
2,4, 1, 4, 0,19,50.00,60.00,Thursday
201,0.0
2,4, 1, 4, 0,20, 0.00,10.00,Thursday
201,0.0
2,4, 1, 4, 0,20,10.00,20.00,Thursday
201,0.0
2,4, 1, 4, 0,20,20.00,30.00,Thursday
201,0.0
2,4, 1, 4, 0,20,30.00,40.00,Thursday
201,0.0
2,4, 1, 4, 0,20,40.00,50.00,Thursday
201,0.0
2,4, 1, 4, 0,20,50.00,60.00,Thursday
201,0.0
2,4, 1, 4, 0,21, 0.00,10.00,Thursday
201,0.0
2,4, 1, 4, 0,21,10.00,20.00,Thursday
201,0.0
2,4, 1, 4, 0,21,20.00,30.00,Thursday
201,0.0
2,4, 1, 4, 0,21,30.00,40.00,Thursday
201,0.0
2,4, 1, 4, 0,21,40.00,50.00,Thursday
201,0.0
2,4, 1, 4, 0,21,50.00,60.00,Thursday
201,0.0
2,4, 1, 4, 0,22, 0.00,10.00,Thursday
201,0.0
2,4, 1, 4, 0,22,10.00,20.00,Thursday
201,0.0
2,4, 1, 4, 0,22,20.00,30.00,Thursday
201,0.0
2,4, 1, 4, 0,22,30.00,40.00,Thursday
201,0.0
2,4, 1, 4, 0,22,40.00,50.00,Thursday
201,0.0
2,4, 1, 4, 0,22,50.00,60.00,Thursday
201,0.0
2,4, 1, 4, 0,23, 0.00,10.00,Thursday
201,0.0
2,4, 1, 4, 0,23,10.00,20.00,Thursday
201,0.0
2,4, 1, 4, 0,23,20.00,30.00,Thursday
201,0.0
2,4, 1, 4, 0,23,30.00,40.00,Thursday
201,0.0
2,4, 1, 4, 0,23,40.00,50.00,Thursday
201,0.0
2,4, 1, 4, 0,23,50.00,60.00,Thursday
201,0.0
2,4, 1, 4, 0,24, 0.00,10.00,Thursday
201,0.0
2,4, 1, 4, 0,24,10.00,20.00,Thursday
201,0.0
2,4, 1, 4, 0,24,20.00,30.00,Thursday
201,0.0
2,4, 1, 4, 0,24,30.00,40.00,Thursday
201,0.0
2,4, 1, 4, 0,24,40.00,50.00,Thursday
201,0.0
2,4, 1, 4, 0,24,50.00,60.00,Thursday
201,0.0
2,5, 1, 5, 0, 1, 0.00,10.00,Friday
201,0.0
2,5, 1, 5, 0, 1,10.00,20.00,Friday
201,0.0
2,5, 1, 5, 0, 1,20.00,30.00,Friday
201,0.0
2,5, 1, 5, 0, 1,30.00,40.00,Friday
201,0.0
2,5, 1, 5, 0, 1,40.00,50.00,Friday
201,0.0
2,5, 1, 5, 0, 1,50.00,60.00,Friday
201,0.0
2,5, 1, 5, 0, 2, 0.00,10.00,Friday
201,0.0
2,5, 1, 5, 0, 2,10.00,20.00,Friday
201,0.0
2,5, 1, 5, 0, 2,20.00,30.00,Friday
201,0.0
2,5, 1, 5, 0, 2,30.00,40.00,Friday
201,0.0
2,5, 1, 5, 0, 2,40.00,50.00,Friday
201,0.0
2,5, 1, 5, 0, 2,50.00,60.00,Friday
201,0.0
2,5, 1, 5, 0, 3, 0.00,10.00,Friday
201,0.0
2,5, 1, 5, 0, 3,10.00,20.00,Friday
201,0.0
2,5, 1, 5, 0, 3,20.00,30.00,Friday
201,0.0
2,5, 1, 5, 0, 3,30.00,40.00,Friday
201,0.0
2,5, 1, 5, 0, 3,40.00,50.00,Friday
201,0.0
2,5, 1, 5, 0, 3,50.00,60.00,Friday
201,0.0
2,5, 1, 5, 0, 4, 0.00,10.00,Friday
201,0.0
2,5, 1, 5, 0, 4,10.00,20.00,Friday
201,0.0
2,5, 1, 5, 0, 4,20.00,30.00,Friday
201,0.0
2,5, 1, 5, 0, 4,30.00,40.00,Friday
201,0.0
2,5, 1, 5, 0, 4,40.00,50.00,Friday
201,0.0
2,5, 1, 5, 0, 4,50.00,60.00,Friday